
     Program PWSCF v.6.3MaX starts on 13Aug2018 at 10:14:59 

     This program is part of the open-source Quantum ESPRESSO suite
     for quantum simulation of materials; please cite
         "P. Giannozzi et al., J. Phys.:Condens. Matter 21 395502 (2009);
         "P. Giannozzi et al., J. Phys.:Condens. Matter 29 465901 (2017);
          URL http://www.quantum-espresso.org", 
     in publications or presentations arising from this work. More details at
     http://www.quantum-espresso.org/quote

     Parallel version (MPI & OpenMP), running on     112 processor cores
     Number of MPI processes:                28
     Threads/MPI process:                     4

     MPI processes distributed on     4 nodes
     R & G space division:  proc/nbgrp/npool/nimage =      28
     Reading input from /scratch/musil/NMR_CALC/qe_in/fidis-rattle_0.025/AHOXOL/AHOXOL.scf.in

     Current dimensions of program PWSCF are:
     Max number of different atomic species (ntypx) = 10
     Max number of k-points (npk) =  40000
     Max angular momentum in pseudopotentials (lmaxx) =  3
     Message from routine read_upf::
     Pseudo file /scratch/musil/NMR_CALC/pseudo/sssp_0.3.1/C.pbe-n-kjpaw_psl.0.1.UPF has been successfully fixed on the fly.
To avoid this message in the future you can permanently fix 
 your pseudo files following instructions given in: 
https://gitlab.com/QEF/q-e/blob/master/upftools/how_to_fix_upf.md
               file C.pbe-n-kjpaw_psl.0.1.UPF: wavefunction(s)  2P renormalized
     Message from routine read_upf::
     Pseudo file /scratch/musil/NMR_CALC/pseudo/sssp_0.3.1/N.pbe-n-kjpaw_psl.0.1.UPF has been successfully fixed on the fly.
To avoid this message in the future you can permanently fix 
 your pseudo files following instructions given in: 
https://gitlab.com/QEF/q-e/blob/master/upftools/how_to_fix_upf.md
               file N.pbe-n-kjpaw_psl.0.1.UPF: wavefunction(s)  2P renormalized
     Message from routine read_upf::
     Pseudo file /scratch/musil/NMR_CALC/pseudo/sssp_0.3.1/H.pbe-kjpaw_psl.0.1.UPF has been successfully fixed on the fly.
To avoid this message in the future you can permanently fix 
 your pseudo files following instructions given in: 
https://gitlab.com/QEF/q-e/blob/master/upftools/how_to_fix_upf.md
               file H.pbe-kjpaw_psl.0.1.UPF: wavefunction(s)  1S renormalized
     Message from routine read_upf::
     Pseudo file /scratch/musil/NMR_CALC/pseudo/sssp_0.3.1/O.pbe-n-kjpaw_psl.0.1.UPF has been successfully fixed on the fly.
To avoid this message in the future you can permanently fix 
 your pseudo files following instructions given in: 
https://gitlab.com/QEF/q-e/blob/master/upftools/how_to_fix_upf.md
               file O.pbe-n-kjpaw_psl.0.1.UPF: wavefunction(s)  2P renormalized

     -------------------------------------------------
     Parameters for Dispersion (Grimme-D2) Correction:
     -------------------------------------------------
       atom      VdW radius       C_6     

        C          2.744         60.710
        N          2.640         42.670
        H          1.892          4.857
        O          2.536         24.284

     Subspace diagonalization in iterative solution of the eigenvalue problem:
     one sub-group per band group will be used
     scalapack distributed-memory algorithm (size of sub-group:  3*  3 procs)

 
     Parallelization info
     --------------------
     sticks:   dense  smooth     PW     G-vecs:    dense   smooth      PW
     Min         272     272     71                36780    36780    4931
     Max         273     273     72                36788    36788    4937
     Sum        7623    7623   1991              1029989  1029989  138137
 


     bravais-lattice index     =            0
     lattice parameter (alat)  =      12.0635  a.u.
     unit-cell volume          =    7624.6416 (a.u.)^3
     number of atoms/cell      =          120
     number of atomic types    =            4
     number of electrons       =       336.00
     number of Kohn-Sham states=          201
     kinetic-energy cutoff     =     100.0000  Ry
     charge density cutoff     =     400.0000  Ry
     convergence threshold     =      1.0E-12
     mixing beta               =       0.5000
     number of iterations used =            8  plain     mixing
     Exchange-correlation      = SLA PW PBX PBC ( 1  4  3  4 0 0)

     celldm(1)=  12.063464  celldm(2)=   0.000000  celldm(3)=   0.000000
     celldm(4)=   0.000000  celldm(5)=   0.000000  celldm(6)=   0.000000

     crystal axes: (cart. coord. in units of alat)
               a(1) = (   1.000000   0.000000   0.000000 )  
               a(2) = (   0.000000   1.645738   0.000000 )  
               a(3) = (  -0.349964   0.000000   2.639020 )  

     reciprocal axes: (cart. coord. in units 2 pi/alat)
               b(1) = (  1.000000  0.000000  0.132611 )  
               b(2) = (  0.000000  0.607630  0.000000 )  
               b(3) = (  0.000000  0.000000  0.378929 )  


     PseudoPot. # 1 for C  read from file:
     /scratch/musil/NMR_CALC/pseudo/sssp_0.3.1/C.pbe-n-kjpaw_psl.0.1.UPF
     MD5 check sum: 430fe95172b1e11ef3f8ed03bac87931
     Pseudo is Projector augmented-wave + core cor, Zval =  4.0
     Generated using "atomic" code by A. Dal Corso v.5.0.99 svn rev. 10869
     Shape of augmentation charge: BESSEL
     Using radial grid of 1073 points,  4 beta functions with: 
                l(1) =   0
                l(2) =   0
                l(3) =   1
                l(4) =   1
     Q(r) pseudized with 0 coefficients 


     PseudoPot. # 2 for N  read from file:
     /scratch/musil/NMR_CALC/pseudo/sssp_0.3.1/N.pbe-n-kjpaw_psl.0.1.UPF
     MD5 check sum: f73187c8b701007e77325f868c9291d7
     Pseudo is Projector augmented-wave + core cor, Zval =  5.0
     Generated using "atomic" code by A. Dal Corso v.5.0.99 svn rev. 10869
     Shape of augmentation charge: PSQ
     Using radial grid of 1085 points,  4 beta functions with: 
                l(1) =   0
                l(2) =   0
                l(3) =   1
                l(4) =   1
     Q(r) pseudized with 0 coefficients 


     PseudoPot. # 3 for H  read from file:
     /scratch/musil/NMR_CALC/pseudo/sssp_0.3.1/H.pbe-kjpaw_psl.0.1.UPF
     MD5 check sum: 94e484f906d9e9773b2f6e52662335b2
     Pseudo is Projector augmented-wave, Zval =  1.0
     Generated using "atomic" code by A. Dal Corso v.5.0.99 svn rev. 10869
     Shape of augmentation charge: PSQ
     Using radial grid of  929 points,  2 beta functions with: 
                l(1) =   0
                l(2) =   0
     Q(r) pseudized with 0 coefficients 


     PseudoPot. # 4 for O  read from file:
     /scratch/musil/NMR_CALC/pseudo/sssp_0.3.1/O.pbe-n-kjpaw_psl.0.1.UPF
     MD5 check sum: 3f94a2996a3169367d6eb21d9b593f20
     Pseudo is Projector augmented-wave + core cor, Zval =  6.0
     Generated using "atomic" code by A. Dal Corso v.5.0.99 svn rev. 10869
     Shape of augmentation charge: BESSEL
     Using radial grid of 1095 points,  4 beta functions with: 
                l(1) =   0
                l(2) =   0
                l(3) =   1
                l(4) =   1
     Q(r) pseudized with 0 coefficients 


     atomic species   valence    mass     pseudopotential
        C              4.00    12.01070     C ( 1.00)
        N              5.00    14.00670     N ( 1.00)
        H              1.00     1.00794     H ( 1.00)
        O              6.00    15.99940     O ( 1.00)

     No symmetry found



   Cartesian axes

     site n.     atom                  positions (alat units)
         1           O   tau(   1) = (   0.5882638   0.7592962   2.5711089  )
         2           O   tau(   2) = (   0.0669542   1.5817973   0.0590390  )
         3           O   tau(   3) = (   0.6410538   0.6890451   0.9279478  )
         4           O   tau(   4) = (   0.0093372   1.5131848   1.7158014  )
         5           O   tau(   5) = (   0.4347426   0.9333119   1.1072154  )
         6           O   tau(   6) = (   0.2132573   0.1019648   1.5332292  )
         7           O   tau(   7) = (   0.6816168   1.4620952   0.8528268  )
         8           O   tau(   8) = (  -0.0325944   0.6444970   1.7877891  )
         9           O   tau(   9) = (   0.8400586   1.6124644   0.5706683  )
        10           O   tau(  10) = (  -0.1801471   0.7819827   2.0711414  )
        11           N   tau(  11) = (   0.7592501   1.1996858   0.2440457  )
        12           N   tau(  12) = (  -0.1121257   0.3840923   2.3962587  )
        13           N   tau(  13) = (   0.0448093   0.8709178   0.2637686  )
        14           N   tau(  14) = (   0.6039274   0.0519566   2.3787979  )
        15           N   tau(  15) = (   0.8766420   0.9015986   0.5992040  )
        16           N   tau(  16) = (  -0.2311190   0.0793179   2.0378875  )
        17           N   tau(  17) = (   0.8282103   1.2568637   0.6087415  )
        18           N   tau(  18) = (  -0.1748288   0.4324577   2.0329503  )
        19           N   tau(  19) = (   0.6556223   1.0471663   0.8716452  )
        20           N   tau(  20) = (   0.0013040   0.2230593   1.7753346  )
        21           H   tau(  21) = (   0.6015607   1.1883811   0.9187536  )
        22           H   tau(  22) = (   0.0448332   0.3671593   1.7226152  )
        23           C   tau(  23) = (   0.5970791   1.3271586   0.2123434  )
        24           C   tau(  24) = (   0.0565756   0.5110957   2.4270620  )
        25           H   tau(  25) = (   0.5703609   1.4736644   0.3125816  )
        26           H   tau(  26) = (   0.0884939   0.6410141   2.3301014  )
        27           C   tau(  27) = (   0.4732640   1.2549228   0.0531250  )
        28           C   tau(  28) = (   0.1795121   0.4279098   2.5927976  )
        29           H   tau(  29) = (  -0.0168689   1.3198928   2.6272738  )
        30           H   tau(  30) = (   0.6681874   0.5062229   0.0037445  )
        31           C   tau(  31) = (   0.2355790   1.0791057   2.6081405  )
        32           C   tau(  32) = (   0.4158416   0.2580672   0.0342331  )
        33           H   tau(  33) = (   0.1817760   0.9771498   2.4840307  )
        34           H   tau(  34) = (   0.4587167   0.1543891   0.1507580  )
        35           C   tau(  35) = (   0.7525977   1.0468906   0.0939036  )
        36           C   tau(  36) = (  -0.1077430   0.2210229   2.5478728  )
        37           C   tau(  37) = (   0.9175601   0.8760959   0.0893232  )
        38           C   tau(  38) = (  -0.2665998   0.0657249   2.5479485  )
        39           C   tau(  39) = (   0.2236989   0.7292887   0.2707777  )
        40           C   tau(  40) = (   0.4256646   1.5545933   2.3601843  )
        41           H   tau(  41) = (   0.3287226   0.7581808   0.1466492  )
        42           H   tau(  42) = (   0.3287238   1.5916380   2.4985679  )
        43           H   tau(  43) = (   0.1787484   0.5674753   0.2653651  )
        44           H   tau(  44) = (   0.4779076   1.3887905   2.3757194  )
        45           C   tau(  45) = (   0.3201058   0.7846650   0.4813924  )
        46           C   tau(  46) = (   0.3265544   1.6115524   2.1529418  )
        47           H   tau(  47) = (   0.5023902   0.7780934   0.4840036  )
        48           H   tau(  48) = (   0.1500976   1.5951069   2.1520071  )
        49           H   tau(  49) = (   0.2639664   0.6831964   0.6028487  )
        50           H   tau(  50) = (   0.3860257   1.5010446   2.0362178  )
        51           C   tau(  51) = (   0.2475171   1.0081955   0.5344595  )
        52           C   tau(  52) = (   0.4064517   0.1827758   2.1100503  )
        53           H   tau(  53) = (   0.3321170   1.1224999   0.4394670  )
        54           H   tau(  54) = (   0.3034812   0.3022605   2.2030237  )
        55           H   tau(  55) = (   0.2512869   1.0545070   0.6857699  )
        56           H   tau(  56) = (   0.3958695   0.2277395   1.9411627  )
        57           C   tau(  57) = (   0.0211847   0.9989375   0.4381241  )
        58           C   tau(  58) = (   0.6323229   0.1823933   2.1964061  )
        59           C   tau(  59) = (   0.9200735   1.2187964   0.4065978  )
        60           C   tau(  60) = (  -0.2704667   0.4008921   2.2334170  )
        61           H   tau(  61) = (   0.0285145   1.3408791   0.3651518  )
        62           H   tau(  62) = (   0.6188706   0.5293828   2.2764189  )
        63           C   tau(  63) = (   0.7887090   1.0544607   0.6946111  )
        64           C   tau(  64) = (  -0.1346534   0.2336703   1.9420092  )
        65           C   tau(  65) = (   0.5778697   0.8656390   0.9625178  )
        66           C   tau(  66) = (   0.0728535   0.0469612   1.6709674  )
        67           C   tau(  67) = (   0.3286669   0.7711240   1.2374504  )
        68           C   tau(  68) = (   0.3306502   1.5922198   1.4027192  )
        69           C   tau(  69) = (   0.2021258   0.6110044   1.1014487  )
        70           C   tau(  70) = (   0.4435925   1.4382554   1.5352227  )
        71           H   tau(  71) = (   0.3126727   0.5191063   1.0163712  )
        72           H   tau(  72) = (   0.3343312   1.3340872   1.6246394  )
        73           H   tau(  73) = (   0.1019844   0.7071306   0.9854066  )
        74           H   tau(  74) = (   0.5466693   1.5225272   1.6589317  )
        75           H   tau(  75) = (   0.1056610   0.5177582   1.1978014  )
        76           H   tau(  76) = (   0.5483030   1.3443795   1.4403925  )
        77           C   tau(  77) = (   0.4785512   0.6648595   1.3814503  )
        78           C   tau(  78) = (   0.1755093   1.4887692   1.2546108  )
        79           H   tau(  79) = (   0.5594170   0.7824435   1.4818720  )
        80           H   tau(  80) = (   0.0876153   1.6006489   1.1603577  )
        81           H   tau(  81) = (   0.5838132   0.5730359   1.2935586  )
        82           H   tau(  82) = (   0.0520204   1.3898461   1.3388054  )
        83           H   tau(  83) = (   0.3898048   0.5540277   1.4953190  )
        84           H   tau(  84) = (   0.2676494   1.3830288   1.1491203  )
        85           C   tau(  85) = (   0.1663528   0.9116029   1.3584794  )
        86           C   tau(  86) = (   0.4854790   0.0837436   1.2829569  )
        87           H   tau(  87) = (   0.2533155   1.0209999   1.4627018  )
        88           H   tau(  88) = (   0.3976730   0.2038771   1.1795833  )
        89           H   tau(  89) = (   0.0728181   0.8096105   1.4590101  )
        90           H   tau(  90) = (   0.5767457   1.6338677   1.1746572  )
        91           H   tau(  91) = (   0.0662256   0.9933758   1.2498794  )
        92           H   tau(  92) = (   0.5800670   0.1672180   1.3893222  )
        93           C   tau(  93) = (   0.7749170   1.4466265   0.6980687  )
        94           C   tau(  94) = (  -0.1201947   0.6225841   1.9469845  )
        95           C   tau(  95) = (   0.7970419   0.1871974   0.6341352  )
        96           C   tau(  96) = (  -0.1423282   1.0125275   2.0140102  )
        97           C   tau(  97) = (  -0.0890948   0.2329004   0.8248318  )
        98           C   tau(  98) = (   0.7415424   1.0671255   1.8115685  )
        99           H   tau(  99) = (   0.0785380   0.2054779   0.8198279  )
       100           H   tau( 100) = (   0.5751789   1.0275919   1.8232526  )
       101           H   tau( 101) = (   0.8399469   0.1635703   0.9607963  )
       102           H   tau( 102) = (  -0.1896750   0.9811489   1.6786526  )
       103           H   tau( 103) = (  -0.1038882   0.4123363   0.8552434  )
       104           H   tau( 104) = (   0.7537385   1.2447631   1.7813544  )
       105           C   tau( 105) = (   0.5673478   0.2231394   0.6455226  )
       106           C   tau( 106) = (   0.0929996   1.0484379   1.9965973  )
       107           H   tau( 107) = (   0.4749080   0.1811841   0.5008923  )
       108           H   tau( 108) = (   0.1729003   1.0008032   2.1469752  )
       109           H   tau( 109) = (   0.5326272   0.3948938   0.6637709  )
       110           H   tau( 110) = (   0.1096298   1.2211695   1.9699464  )
       111           H   tau( 111) = (   0.4840996   0.1384283   0.7766861  )
       112           H   tau( 112) = (   0.1571465   0.9681644   1.8692457  )
       113           C   tau( 113) = (   0.8840550   0.3073046   0.4439977  )
       114           C   tau( 114) = (  -0.2415004   1.1301068   2.2047051  )
       115           H   tau( 115) = (   0.0496003   0.2713269   0.4171277  )
       116           H   tau( 116) = (   0.5969138   1.0974242   2.2239952  )
       117           H   tau( 117) = (   0.8673187   0.4707326   0.4553067  )
       118           H   tau( 118) = (  -0.2116713   1.2936444   2.1723713  )
       119           H   tau( 119) = (   0.7954469   0.2588042   0.2975564  )
       120           H   tau( 120) = (  -0.1465647   1.0813511   2.3464531  )

     number of k points=     4
                       cart. coord. in units 2pi/alat
        k(    1) = (   0.0000000   0.0000000   0.0000000), wk =   0.3333333
        k(    2) = (   0.0000000  -0.3038151   0.0000000), wk =   0.3333333
        k(    3) = (   0.3333333   0.0000000   0.0442038), wk =   0.6666667
        k(    4) = (   0.3333333  -0.3038151   0.0442038), wk =   0.6666667

     Dense  grid:  1029989 G-vectors     FFT dimensions: (  80, 128, 216)

     Estimated max dynamical RAM per process >     366.70 MB

     Estimated total dynamical RAM >      10.03 GB

     Check: negative/imaginary core charge=   -0.000002    0.000000

     Initial potential from superposition of free atoms

     starting charge  335.99761, renormalised to  336.00000
     Starting wfcs are  306 randomized atomic wfcs
     Checking if some PAW data can be deallocated... 

     total cpu time spent up to now is        7.9 secs

     Self-consistent Calculation

     iteration #  1     ecut=   100.00 Ry     beta= 0.50
     Davidson diagonalization with overlap
     ethr =  1.00E-02,  avg # of iterations =  4.0

     total cpu time spent up to now is       21.1 secs

     total energy              =   -1539.60290509 Ry
     Harris-Foulkes estimate   =   -1546.78580051 Ry
     estimated scf accuracy    <      13.39055933 Ry

     iteration #  2     ecut=   100.00 Ry     beta= 0.50
     Davidson diagonalization with overlap
     ethr =  3.99E-03,  avg # of iterations =  2.2

     total cpu time spent up to now is       27.6 secs

     total energy              =   -1540.59601753 Ry
     Harris-Foulkes estimate   =   -1541.44494027 Ry
     estimated scf accuracy    <       1.73654991 Ry

     iteration #  3     ecut=   100.00 Ry     beta= 0.50
     Davidson diagonalization with overlap
     ethr =  5.17E-04,  avg # of iterations =  5.0

     total cpu time spent up to now is       41.9 secs

     total energy              =   -1542.10298307 Ry
     Harris-Foulkes estimate   =   -1542.84763682 Ry
     estimated scf accuracy    <       2.08411767 Ry

     iteration #  4     ecut=   100.00 Ry     beta= 0.50
     Davidson diagonalization with overlap
     ethr =  5.17E-04,  avg # of iterations =  2.0

     total cpu time spent up to now is       48.0 secs

     total energy              =   -1541.77804374 Ry
     Harris-Foulkes estimate   =   -1542.21755947 Ry
     estimated scf accuracy    <       0.68145875 Ry

     iteration #  5     ecut=   100.00 Ry     beta= 0.50
     Davidson diagonalization with overlap
     ethr =  2.03E-04,  avg # of iterations =  6.0

     total cpu time spent up to now is       62.5 secs

     total energy              =   -1542.24473257 Ry
     Harris-Foulkes estimate   =   -1542.49974486 Ry
     estimated scf accuracy    <       0.84446983 Ry

     iteration #  6     ecut=   100.00 Ry     beta= 0.50
     Davidson diagonalization with overlap
     ethr =  2.03E-04,  avg # of iterations =  1.0

     total cpu time spent up to now is       68.3 secs

     total energy              =   -1542.08864465 Ry
     Harris-Foulkes estimate   =   -1542.26459967 Ry
     estimated scf accuracy    <       0.39114072 Ry

     iteration #  7     ecut=   100.00 Ry     beta= 0.50
     Davidson diagonalization with overlap
     ethr =  1.16E-04,  avg # of iterations =  8.2

     total cpu time spent up to now is       80.3 secs

     total energy              =   -1542.23412545 Ry
     Harris-Foulkes estimate   =   -1542.23391635 Ry
     estimated scf accuracy    <       0.01328811 Ry

     iteration #  8     ecut=   100.00 Ry     beta= 0.50
     Davidson diagonalization with overlap
     ethr =  3.95E-06,  avg # of iterations = 12.0

     total cpu time spent up to now is       97.0 secs

     total energy              =   -1542.23048420 Ry
     Harris-Foulkes estimate   =   -1542.23781406 Ry
     estimated scf accuracy    <       0.01724724 Ry

     iteration #  9     ecut=   100.00 Ry     beta= 0.50
     Davidson diagonalization with overlap
     ethr =  3.95E-06,  avg # of iterations =  1.0

     total cpu time spent up to now is      102.8 secs

     total energy              =   -1542.22901380 Ry
     Harris-Foulkes estimate   =   -1542.23127686 Ry
     estimated scf accuracy    <       0.00473692 Ry

     iteration # 10     ecut=   100.00 Ry     beta= 0.50
     Davidson diagonalization with overlap
     ethr =  1.41E-06,  avg # of iterations =  6.8

     total cpu time spent up to now is      116.7 secs

     total energy              =   -1542.23225782 Ry
     Harris-Foulkes estimate   =   -1542.23263426 Ry
     estimated scf accuracy    <       0.00135787 Ry

     iteration # 11     ecut=   100.00 Ry     beta= 0.50
     Davidson diagonalization with overlap
     ethr =  4.04E-07,  avg # of iterations =  1.0

     total cpu time spent up to now is      122.6 secs

     total energy              =   -1542.23193444 Ry
     Harris-Foulkes estimate   =   -1542.23228286 Ry
     estimated scf accuracy    <       0.00069549 Ry

     iteration # 12     ecut=   100.00 Ry     beta= 0.50
     Davidson diagonalization with overlap
     ethr =  2.07E-07,  avg # of iterations =  4.0

     total cpu time spent up to now is      132.5 secs

     total energy              =   -1542.23222436 Ry
     Harris-Foulkes estimate   =   -1542.23223612 Ry
     estimated scf accuracy    <       0.00006621 Ry

     iteration # 13     ecut=   100.00 Ry     beta= 0.50
     Davidson diagonalization with overlap
     ethr =  1.97E-08,  avg # of iterations =  1.5

     total cpu time spent up to now is      138.4 secs

     total energy              =   -1542.23220009 Ry
     Harris-Foulkes estimate   =   -1542.23222742 Ry
     estimated scf accuracy    <       0.00004519 Ry

     iteration # 14     ecut=   100.00 Ry     beta= 0.50
     Davidson diagonalization with overlap
     ethr =  1.34E-08,  avg # of iterations =  4.0

     total cpu time spent up to now is      148.7 secs

     total energy              =   -1542.23221889 Ry
     Harris-Foulkes estimate   =   -1542.23222065 Ry
     estimated scf accuracy    <       0.00000780 Ry

     iteration # 15     ecut=   100.00 Ry     beta= 0.50
     Davidson diagonalization with overlap
     ethr =  2.32E-09,  avg # of iterations =  1.0

     total cpu time spent up to now is      154.5 secs

     total energy              =   -1542.23221681 Ry
     Harris-Foulkes estimate   =   -1542.23221907 Ry
     estimated scf accuracy    <       0.00000467 Ry

     iteration # 16     ecut=   100.00 Ry     beta= 0.50
     Davidson diagonalization with overlap
     ethr =  1.39E-09,  avg # of iterations =  4.0

     total cpu time spent up to now is      164.1 secs

     total energy              =   -1542.23221834 Ry
     Harris-Foulkes estimate   =   -1542.23221837 Ry
     estimated scf accuracy    <       0.00000018 Ry

     iteration # 17     ecut=   100.00 Ry     beta= 0.50
     Davidson diagonalization with overlap
     ethr =  5.44E-11,  avg # of iterations =  4.5

     total cpu time spent up to now is      172.5 secs

     total energy              =   -1542.23221831 Ry
     Harris-Foulkes estimate   =   -1542.23221837 Ry
     estimated scf accuracy    <       0.00000011 Ry

     iteration # 18     ecut=   100.00 Ry     beta= 0.50
     Davidson diagonalization with overlap
     ethr =  3.42E-11,  avg # of iterations =  5.0

     total cpu time spent up to now is      182.0 secs

     total energy              =   -1542.23221835 Ry
     Harris-Foulkes estimate   =   -1542.23221835 Ry
     estimated scf accuracy    <       0.00000001 Ry

     iteration # 19     ecut=   100.00 Ry     beta= 0.50
     Davidson diagonalization with overlap
     ethr =  3.14E-12,  avg # of iterations =  3.2

     total cpu time spent up to now is      189.3 secs

     total energy              =   -1542.23221835 Ry
     Harris-Foulkes estimate   =   -1542.23221835 Ry
     estimated scf accuracy    <          5.0E-09 Ry

     iteration # 20     ecut=   100.00 Ry     beta= 0.50
     Davidson diagonalization with overlap
     ethr =  1.50E-12,  avg # of iterations =  4.0

     total cpu time spent up to now is      199.1 secs

     total energy              =   -1542.23221835 Ry
     Harris-Foulkes estimate   =   -1542.23221835 Ry
     estimated scf accuracy    <          1.1E-09 Ry

     iteration # 21     ecut=   100.00 Ry     beta= 0.50
     Davidson diagonalization with overlap
     ethr =  3.41E-13,  avg # of iterations =  2.0

     total cpu time spent up to now is      205.2 secs

     total energy              =   -1542.23221835 Ry
     Harris-Foulkes estimate   =   -1542.23221835 Ry
     estimated scf accuracy    <          7.0E-10 Ry

     iteration # 22     ecut=   100.00 Ry     beta= 0.50
     Davidson diagonalization with overlap
     ethr =  2.07E-13,  avg # of iterations =  4.0

     total cpu time spent up to now is      214.8 secs

     total energy              =   -1542.23221835 Ry
     Harris-Foulkes estimate   =   -1542.23221835 Ry
     estimated scf accuracy    <          2.3E-10 Ry

     iteration # 23     ecut=   100.00 Ry     beta= 0.50
     Davidson diagonalization with overlap
     ethr =  1.00E-13,  avg # of iterations =  1.0

     total cpu time spent up to now is      220.5 secs

     total energy              =   -1542.23221835 Ry
     Harris-Foulkes estimate   =   -1542.23221835 Ry
     estimated scf accuracy    <          1.0E-10 Ry

     iteration # 24     ecut=   100.00 Ry     beta= 0.50
     Davidson diagonalization with overlap
     ethr =  1.00E-13,  avg # of iterations =  4.8

     total cpu time spent up to now is      228.2 secs

     total energy              =   -1542.23221835 Ry
     Harris-Foulkes estimate   =   -1542.23221835 Ry
     estimated scf accuracy    <          5.4E-12 Ry

     iteration # 25     ecut=   100.00 Ry     beta= 0.50
     Davidson diagonalization with overlap
     ethr =  1.00E-13,  avg # of iterations =  1.0

     total cpu time spent up to now is      234.0 secs

     total energy              =   -1542.23221835 Ry
     Harris-Foulkes estimate   =   -1542.23221835 Ry
     estimated scf accuracy    <          1.6E-12 Ry

     iteration # 26     ecut=   100.00 Ry     beta= 0.50
     Davidson diagonalization with overlap
     ethr =  1.00E-13,  avg # of iterations =  1.0

     total cpu time spent up to now is      239.7 secs

     End of self-consistent calculation

          k = 0.0000 0.0000 0.0000 (128697 PWs)   bands (ev):

   -22.5635 -22.4834 -22.1799 -21.7820 -20.3056 -20.2164 -20.0136 -19.9231
   -19.6609 -19.5028 -19.4097 -19.1889 -18.9560 -18.5659 -18.1143 -17.7503
   -17.5013 -17.4936 -16.2592 -16.0462 -14.6573 -14.4013 -14.2476 -14.2185
   -13.9971 -13.9701 -13.7933 -13.7767 -12.7380 -12.6784 -12.1818 -12.1297
   -11.5202 -11.3600 -11.3508 -11.2986 -11.2087 -11.1619 -11.1145 -11.0793
   -10.9798 -10.9552 -10.8628 -10.8246 -10.2936 -10.2394 -10.0486  -9.9874
    -9.0877  -8.9223  -8.9006  -8.7149  -8.5771  -8.5578  -8.5045  -8.4431
    -8.3636  -8.2777  -8.2111  -7.9015  -7.6370  -7.5354  -7.1087  -7.0177
    -6.7968  -6.7116  -6.6617  -6.5656  -6.5326  -6.4833  -6.4557  -6.3768
    -6.0582  -6.0017  -5.8488  -5.8226  -5.7788  -5.6700  -5.6419  -5.5461
    -5.5096  -5.4425  -5.2992  -5.1844  -5.1178  -5.0944  -5.0681  -5.0030
    -4.9864  -4.9519  -4.8758  -4.8207  -4.7947  -4.7172  -4.6896  -4.5652
    -4.4620  -4.2825  -4.2508  -4.1770  -4.0885  -4.0624  -3.9985  -3.9648
    -3.9230  -3.8595  -3.7099  -3.6633  -3.6473  -3.5690  -3.5228  -3.4754
    -3.3988  -3.3546  -3.3031  -3.2901  -3.2526  -3.2415  -3.1465  -3.1127
    -3.0800  -3.0547  -3.0216  -2.9586  -2.9313  -2.8611  -2.7614  -2.7113
    -2.7085  -2.6367  -2.6198  -2.5603  -2.5407  -2.4841  -2.4499  -2.3736
    -2.3427  -2.3024  -2.2500  -2.2043  -2.1468  -2.0975  -1.9767  -1.8897
    -1.8425  -1.6300  -1.5107  -1.4314  -1.3805  -1.3052  -1.1566  -1.0451
    -1.0322  -0.9799  -0.9251  -0.8957  -0.4014  -0.3518  -0.1761  -0.1308
    -0.0900  -0.0294   0.1737   0.2299   0.4276   0.5810   0.7249   0.8593
     4.2793   4.3107   4.3506   4.6013   5.1550   5.5235   5.6300   5.6911
     5.9489   6.0633   6.2175   6.2532   6.2820   6.4302   6.5486   6.5902
     6.6523   6.8901   6.9577   7.0786   7.1644   7.1795   7.2476   7.3902
     7.4317   7.5185   7.6088   7.6741   7.7046   7.7065   7.8894   7.9781
     8.0301

          k = 0.0000-0.3038 0.0000 (128756 PWs)   bands (ev):

   -22.5635 -22.4834 -22.1800 -21.7821 -20.3054 -20.2166 -20.0139 -19.9234
   -19.6609 -19.5023 -19.4096 -19.1882 -18.9557 -18.5662 -18.1139 -17.7505
   -17.5022 -17.4941 -16.2586 -16.0458 -14.6577 -14.4171 -14.2320 -14.2178
   -13.9998 -13.9689 -13.7907 -13.7768 -12.7364 -12.6817 -12.1821 -12.1324
   -11.5278 -11.3713 -11.3239 -11.2861 -11.1949 -11.1734 -11.1258 -11.1072
   -10.9917 -10.9622 -10.8394 -10.8173 -10.2766 -10.2335 -10.0445  -9.9895
    -9.1012  -8.9378  -8.8999  -8.6988  -8.5610  -8.5460  -8.5350  -8.4093
    -8.3578  -8.2847  -8.2178  -7.9019  -7.5990  -7.5904  -7.1132  -7.0112
    -6.8553  -6.7879  -6.6372  -6.5460  -6.5083  -6.4702  -6.4166  -6.3812
    -6.0763  -5.9913  -5.8564  -5.8079  -5.7711  -5.7415  -5.6182  -5.5630
    -5.5185  -5.4806  -5.2637  -5.1750  -5.1281  -5.1250  -5.0741  -4.9844
    -4.9482  -4.9102  -4.8830  -4.8474  -4.7771  -4.6901  -4.6706  -4.5898
    -4.5170  -4.2806  -4.2196  -4.1619  -4.1033  -4.0608  -4.0354  -3.9608
    -3.9253  -3.8919  -3.7134  -3.6522  -3.6113  -3.5722  -3.5601  -3.4335
    -3.3965  -3.3684  -3.3146  -3.2617  -3.2242  -3.2132  -3.1204  -3.0639
    -3.0533  -3.0156  -2.9530  -2.9311  -2.8864  -2.8264  -2.7794  -2.7609
    -2.7479  -2.6743  -2.6294  -2.5523  -2.4908  -2.4631  -2.4286  -2.4016
    -2.3594  -2.3366  -2.2430  -2.1921  -2.1685  -2.0782  -2.0661  -1.9383
    -1.8646  -1.6464  -1.4968  -1.4801  -1.3467  -1.2711  -1.1807  -1.1084
    -1.0354  -1.0116  -0.9779  -0.8521  -0.4043  -0.3341  -0.1758  -0.1275
    -0.0960  -0.0209   0.1707   0.2413   0.3977   0.5813   0.7553   0.8489
     4.3054   4.3289   4.3761   4.5656   5.3449   5.4486   5.6061   5.6264
     5.9462   6.0071   6.0547   6.1458   6.4070   6.4297   6.6291   6.6460
     6.8564   6.9108   7.0007   7.0981   7.1494   7.2245   7.2482   7.3248
     7.4230   7.4435   7.5678   7.6552   7.8288   7.8724   7.9178   7.9453
     7.9798

          k = 0.3333 0.0000 0.0442 (128833 PWs)   bands (ev):

   -22.5634 -22.4833 -22.1795 -21.7814 -20.3023 -20.2134 -20.0132 -19.9229
   -19.6618 -19.5024 -19.4105 -19.1880 -18.9575 -18.5673 -18.1200 -17.7617
   -17.5005 -17.4871 -16.2623 -16.0504 -14.6537 -14.4016 -14.2357 -14.2110
   -13.9935 -13.9662 -13.7933 -13.7764 -12.7625 -12.7064 -12.1903 -12.1360
   -11.5019 -11.3381 -11.3332 -11.2871 -11.2089 -11.1777 -11.1289 -11.1093
   -11.0101 -10.9580 -10.8834 -10.8213 -10.2880 -10.2144 -10.0327  -9.9435
    -9.1444  -8.9838  -8.8997  -8.7097  -8.5732  -8.5527  -8.4956  -8.4262
    -8.3592  -8.2998  -8.1790  -7.8969  -7.5932  -7.5309  -7.1186  -7.0357
    -6.7778  -6.6866  -6.6197  -6.5738  -6.4647  -6.4026  -6.3891  -6.3243
    -6.0714  -5.9795  -5.8617  -5.8118  -5.7180  -5.6558  -5.6163  -5.5759
    -5.5175  -5.4269  -5.3420  -5.2580  -5.1539  -5.1254  -5.0864  -5.0161
    -4.9806  -4.9434  -4.9089  -4.8835  -4.7558  -4.7349  -4.6788  -4.5720
    -4.4147  -4.2450  -4.2143  -4.1541  -4.1039  -4.0494  -4.0222  -3.9777
    -3.9347  -3.8889  -3.7998  -3.7121  -3.6415  -3.5808  -3.5212  -3.4499
    -3.4049  -3.3596  -3.3394  -3.2797  -3.2380  -3.2112  -3.1414  -3.1208
    -3.0400  -3.0127  -2.9422  -2.9080  -2.8535  -2.8256  -2.7475  -2.7068
    -2.6865  -2.6505  -2.6319  -2.5674  -2.5415  -2.5086  -2.4539  -2.4169
    -2.3780  -2.3683  -2.3368  -2.2450  -2.1820  -2.1069  -2.0626  -1.9907
    -1.8229  -1.7730  -1.5377  -1.4649  -1.3459  -1.2808  -1.1515  -1.0510
    -1.0203  -0.9766  -0.9610  -0.8360  -0.3818  -0.2263  -0.1811  -0.1255
    -0.0934  -0.0132   0.2028   0.2264   0.4338   0.5651   0.6651   0.8548
     4.2452   4.2719   4.3973   4.5487   5.4625   5.6131   5.6584   5.8890
     5.9745   6.0545   6.1813   6.2648   6.4609   6.5210   6.6035   6.6725
     6.7417   6.8100   6.8657   7.0021   7.0363   7.0989   7.2101   7.2336
     7.4144   7.4877   7.5168   7.5542   7.6271   7.6714   7.7164   7.7754
     7.8365

          k = 0.3333-0.3038 0.0442 (128748 PWs)   bands (ev):

   -22.5633 -22.4832 -22.1796 -21.7815 -20.3022 -20.2136 -20.0136 -19.9233
   -19.6618 -19.5020 -19.4104 -19.1874 -18.9573 -18.5676 -18.1197 -17.7618
   -17.5012 -17.4876 -16.2616 -16.0498 -14.6537 -14.4090 -14.2351 -14.2139
   -13.9900 -13.9596 -13.7915 -13.7778 -12.7619 -12.7078 -12.1889 -12.1394
   -11.5014 -11.3423 -11.3290 -11.2989 -11.2170 -11.1776 -11.1500 -11.0936
   -11.0122 -10.9756 -10.8525 -10.8171 -10.2578 -10.2042 -10.0261  -9.9552
    -9.1468  -8.9933  -8.9014  -8.6867  -8.5674  -8.5489  -8.5215  -8.4102
    -8.3668  -8.3027  -8.2104  -7.9019  -7.5657  -7.5393  -7.1196  -7.0413
    -6.7706  -6.7132  -6.6467  -6.5704  -6.4943  -6.4004  -6.3671  -6.3171
    -6.0491  -5.9929  -5.8556  -5.8003  -5.7592  -5.6914  -5.6140  -5.5850
    -5.5247  -5.4597  -5.2800  -5.2015  -5.1736  -5.1463  -5.0844  -5.0343
    -4.9533  -4.9103  -4.8686  -4.8389  -4.8037  -4.7588  -4.6800  -4.5871
    -4.4072  -4.2451  -4.2041  -4.1483  -4.1165  -4.0445  -4.0297  -3.9747
    -3.9443  -3.9002  -3.7476  -3.6882  -3.6479  -3.5908  -3.5569  -3.4506
    -3.4133  -3.3684  -3.3185  -3.2639  -3.2231  -3.1971  -3.1527  -3.1092
    -3.0770  -2.9813  -2.9066  -2.8667  -2.8359  -2.8199  -2.8022  -2.7248
    -2.6947  -2.6579  -2.6266  -2.5654  -2.5335  -2.5043  -2.4394  -2.4329
    -2.3929  -2.3430  -2.2867  -2.2193  -2.1645  -2.0924  -2.0489  -2.0390
    -1.8946  -1.7840  -1.4913  -1.4519  -1.3088  -1.3003  -1.1821  -1.1289
    -1.0725  -1.0315  -0.9614  -0.8106  -0.3935  -0.2228  -0.1787  -0.1288
    -0.0973  -0.0040   0.2075   0.2384   0.4101   0.5751   0.7258   0.7936
     4.2618   4.2884   4.4160   4.5463   5.4345   5.5797   5.7661   5.8095
     6.0040   6.1028   6.1901   6.2405   6.4189   6.4626   6.5649   6.6679
     6.7956   6.8520   7.0164   7.0360   7.0799   7.1327   7.2628   7.2945
     7.3544   7.4396   7.5072   7.5477   7.6449   7.6837   7.7501   7.8006
     7.8958

     highest occupied, lowest unoccupied level (ev):     0.8593    4.2452

!    total energy              =   -1542.23221835 Ry
     Harris-Foulkes estimate   =   -1542.23221835 Ry
     estimated scf accuracy    <          2.9E-13 Ry

     total all-electron energy =     -5869.781162 Ry

     The total energy is the sum of the following terms:

     one-electron contribution =   -1198.35511837 Ry
     hartree contribution      =     720.50006805 Ry
     xc contribution           =    -344.75568885 Ry
     ewald contribution        =    -261.85116111 Ry
     Dispersion Correction     =      -0.52132088 Ry
     one-center paw contrib.   =    -457.24899718 Ry

     convergence has been achieved in  26 iterations

     Forces acting on atoms (cartesian axes, Ry/au):

     atom    1 type  4   force =     0.00064852    0.02007040    0.05261890
     atom    2 type  4   force =     0.00113262    0.02988225   -0.02869194
     atom    3 type  4   force =    -0.02134674    0.00852761    0.00414375
     atom    4 type  4   force =     0.02871319    0.05721120   -0.02723814
     atom    5 type  4   force =     0.00384166   -0.04483165   -0.01123181
     atom    6 type  4   force =     0.04233914    0.02603948   -0.03373578
     atom    7 type  4   force =    -0.11239503    0.02261414    0.20334169
     atom    8 type  4   force =     0.10120406    0.00253022   -0.18843265
     atom    9 type  4   force =    -0.00601546   -0.07157160    0.01850435
     atom   10 type  4   force =    -0.01582463    0.00642718    0.01681746
     atom   11 type  2   force =     0.02863519   -0.00660155    0.01910518
     atom   12 type  2   force =     0.02424075   -0.02625607    0.03658973
     atom   13 type  2   force =    -0.02292798   -0.03023112   -0.10143975
     atom   14 type  2   force =     0.03799857    0.02800753   -0.00192003
     atom   15 type  2   force =     0.00624990    0.00289988    0.00523968
     atom   16 type  2   force =     0.03100208    0.04425505   -0.02769560
     atom   17 type  2   force =     0.00223634   -0.02001988    0.00543284
     atom   18 type  2   force =     0.01342616    0.00239447   -0.02834888
     atom   19 type  2   force =     0.03835732   -0.01986255   -0.06370964
     atom   20 type  2   force =    -0.01263647    0.02419719    0.00811846
     atom   21 type  3   force =    -0.00686772    0.01435651    0.00636044
     atom   22 type  3   force =     0.00810085    0.01077069   -0.00523174
     atom   23 type  1   force =    -0.06823870    0.12374335    0.06899776
     atom   24 type  1   force =     0.02147450   -0.05629331    0.04424698
     atom   25 type  3   force =     0.01577419   -0.05723328   -0.03394697
     atom   26 type  3   force =     0.00208592    0.03440328   -0.02497335
     atom   27 type  1   force =     0.03299175   -0.03580427   -0.04415304
     atom   28 type  1   force =    -0.06693650    0.03261967   -0.04254140
     atom   29 type  3   force =    -0.01822108    0.01646303    0.00162326
     atom   30 type  3   force =     0.02685260    0.00164137    0.01642958
     atom   31 type  1   force =    -0.07979705    0.01215422   -0.01839546
     atom   32 type  1   force =    -0.00671377    0.01315988   -0.05357530
     atom   33 type  3   force =     0.00479429   -0.00314909   -0.00452220
     atom   34 type  3   force =     0.02421364   -0.04699909    0.06396171
     atom   35 type  1   force =     0.10901302   -0.08260342    0.02374845
     atom   36 type  1   force =     0.01154021    0.08706619   -0.04827509
     atom   37 type  1   force =    -0.03037331    0.02830212   -0.03427805
     atom   38 type  1   force =    -0.03328370   -0.09937176    0.05405069
     atom   39 type  1   force =    -0.00650482    0.02091285    0.06032936
     atom   40 type  1   force =     0.00839968   -0.00777741    0.05914281
     atom   41 type  3   force =     0.03116754    0.01462468   -0.04962254
     atom   42 type  3   force =    -0.00990243   -0.01230524   -0.00918323
     atom   43 type  3   force =    -0.01485932   -0.02859462   -0.00584857
     atom   44 type  3   force =    -0.00852043    0.01926199   -0.00411495
     atom   45 type  1   force =     0.10301473    0.02405214    0.02094748
     atom   46 type  1   force =    -0.03783072   -0.03916755   -0.00898608
     atom   47 type  3   force =    -0.06651142   -0.00563737   -0.00591237
     atom   48 type  3   force =     0.03785638    0.00977646    0.00340235
     atom   49 type  3   force =    -0.01016700   -0.02639922    0.02209035
     atom   50 type  3   force =     0.00143894   -0.00031469   -0.01140830
     atom   51 type  1   force =    -0.03504016   -0.04466565   -0.16727717
     atom   52 type  1   force =    -0.04946005    0.08483100   -0.00713002
     atom   53 type  3   force =     0.01014169    0.00565462   -0.00635899
     atom   54 type  3   force =     0.04470593   -0.03934057   -0.02902714
     atom   55 type  3   force =    -0.00170164    0.02642669    0.13176014
     atom   56 type  3   force =     0.00876955   -0.00523490    0.02202164
     atom   57 type  1   force =    -0.01013519    0.04377729    0.09258664
     atom   58 type  1   force =    -0.03337782   -0.01666962   -0.01742692
     atom   59 type  1   force =     0.01095373   -0.02137748   -0.03371318
     atom   60 type  1   force =    -0.03134370    0.00217566    0.02899401
     atom   61 type  3   force =     0.01802610    0.01967336   -0.00913629
     atom   62 type  3   force =     0.01120466   -0.02024780   -0.01162678
     atom   63 type  1   force =    -0.03033662   -0.00455260    0.04163468
     atom   64 type  1   force =    -0.02864149   -0.06194120    0.03392265
     atom   65 type  1   force =     0.02322328    0.01495106    0.01879152
     atom   66 type  1   force =    -0.06472394   -0.10233877    0.06672415
     atom   67 type  1   force =    -0.09234067    0.02922375    0.00114515
     atom   68 type  1   force =    -0.02803417    0.02048226   -0.02794952
     atom   69 type  1   force =     0.01574678    0.12132211   -0.04821849
     atom   70 type  1   force =     0.02403871    0.00169117    0.10259046
     atom   71 type  3   force =     0.01797234   -0.02945470   -0.02426294
     atom   72 type  3   force =     0.01580723    0.01470937   -0.01822517
     atom   73 type  3   force =     0.02584881   -0.03830345    0.03533442
     atom   74 type  3   force =    -0.03126089   -0.02552154   -0.04203488
     atom   75 type  3   force =    -0.03366476   -0.03021142    0.03403113
     atom   76 type  3   force =     0.00899554   -0.01135865   -0.01249281
     atom   77 type  1   force =    -0.03962388    0.00010874    0.09272251
     atom   78 type  1   force =    -0.02509884   -0.05697612    0.00465714
     atom   79 type  3   force =    -0.00012934   -0.01417517   -0.01256453
     atom   80 type  3   force =     0.00417206    0.01383889   -0.00856900
     atom   81 type  3   force =     0.04609484   -0.03143158   -0.02420820
     atom   82 type  3   force =     0.04315960    0.02480104   -0.01502565
     atom   83 type  3   force =     0.02476035    0.03870617   -0.04294475
     atom   84 type  3   force =    -0.01715810    0.01328373    0.01118638
     atom   85 type  1   force =     0.05727171   -0.03378796    0.01914766
     atom   86 type  1   force =    -0.07778326    0.01783033   -0.07078031
     atom   87 type  3   force =    -0.01258592   -0.00325104   -0.01483320
     atom   88 type  3   force =     0.02540808   -0.03749423    0.03654706
     atom   89 type  3   force =    -0.00638726   -0.00294160    0.00287117
     atom   90 type  3   force =     0.00853227   -0.00563894    0.00253491
     atom   91 type  3   force =    -0.01136767    0.01504103   -0.01436643
     atom   92 type  3   force =     0.04159664    0.02837262    0.03602708
     atom   93 type  1   force =     0.10871335    0.04850258   -0.22065686
     atom   94 type  1   force =    -0.08159536    0.04337481    0.15843967
     atom   95 type  1   force =     0.00113678   -0.01647348   -0.08974798
     atom   96 type  1   force =    -0.02651726   -0.01351050    0.01346129
     atom   97 type  1   force =     0.01740124    0.12722828    0.07117231
     atom   98 type  1   force =     0.01316725    0.04116348   -0.00921542
     atom   99 type  3   force =     0.01367358   -0.01527964   -0.00834235
     atom  100 type  3   force =    -0.00619424   -0.00248404    0.00384566
     atom  101 type  3   force =    -0.00608290   -0.02166874    0.02370086
     atom  102 type  3   force =    -0.00252394    0.00777436    0.00129262
     atom  103 type  3   force =     0.00305672   -0.06052155   -0.01271398
     atom  104 type  3   force =     0.00180557   -0.05863277    0.01182231
     atom  105 type  1   force =    -0.10750262    0.02087441    0.01308647
     atom  106 type  1   force =    -0.02848241    0.05947568    0.08061198
     atom  107 type  3   force =     0.03309640   -0.00178664    0.01588213
     atom  108 type  3   force =    -0.01211460    0.01363962   -0.03002340
     atom  109 type  3   force =     0.01463357   -0.02554406    0.00609585
     atom  110 type  3   force =     0.00822940   -0.02369595    0.00728848
     atom  111 type  3   force =     0.02622231    0.01794933   -0.01878691
     atom  112 type  3   force =     0.02850109   -0.03647815   -0.05569413
     atom  113 type  1   force =    -0.01415699   -0.07295082   -0.04909397
     atom  114 type  1   force =     0.11249399   -0.04021631   -0.00968024
     atom  115 type  3   force =     0.00384069   -0.00560667    0.00181077
     atom  116 type  3   force =    -0.04501005   -0.01253179    0.00556841
     atom  117 type  3   force =    -0.01050814    0.06457635    0.02141092
     atom  118 type  3   force =    -0.00475885    0.02652259    0.00283553
     atom  119 type  3   force =     0.02275333    0.00518422    0.03334078
     atom  120 type  3   force =    -0.03238190    0.01378919   -0.02259934

     Total force =     0.848395     Total SCF correction =     0.000001


     Computing stress (Cartesian axis) and pressure

          total   stress  (Ry/bohr**3)                   (kbar)     P=    3.65
   0.00000935   0.00000104  -0.00006510          1.38      0.15     -9.58
   0.00000104  -0.00006955   0.00000315          0.15    -10.23      0.46
  -0.00006510   0.00000315   0.00013470         -9.58      0.46     19.82


     Writing output data file AHOXOL.save/
 
     init_run     :     19.77s CPU      6.22s WALL (       1 calls)
     electrons    :    895.54s CPU    231.84s WALL (       1 calls)
     forces       :      8.17s CPU      3.26s WALL (       1 calls)
     stress       :     50.38s CPU     16.80s WALL (       1 calls)

     Called by init_run:
     wfcinit      :     13.93s CPU      3.61s WALL (       1 calls)
     potinit      :      2.22s CPU      1.25s WALL (       1 calls)
     hinit0       :      2.62s CPU      1.04s WALL (       1 calls)

     Called by electrons:
     c_bands      :    779.05s CPU    201.14s WALL (      26 calls)
     sum_band     :     98.96s CPU     25.80s WALL (      26 calls)
     v_of_rho     :      3.06s CPU      0.80s WALL (      27 calls)
     newd         :      5.36s CPU      1.61s WALL (      27 calls)
     PAW_pot      :      6.99s CPU      1.81s WALL (      27 calls)
     mix_rho      :      1.46s CPU      0.39s WALL (      26 calls)

     Called by c_bands:
     init_us_2    :      5.92s CPU      1.49s WALL (     220 calls)
     cegterg      :    764.13s CPU    197.34s WALL (     104 calls)

     Called by sum_band:
     sum_band:bec :      0.39s CPU      0.10s WALL (     104 calls)
     addusdens    :      4.27s CPU      1.41s WALL (      26 calls)

     Called by *egterg:
     h_psi        :    462.13s CPU    119.06s WALL (     485 calls)
     s_psi        :     41.38s CPU     10.36s WALL (     485 calls)
     g_psi        :      1.26s CPU      0.32s WALL (     377 calls)
     cdiaghg      :    151.83s CPU     39.86s WALL (     481 calls)

     Called by h_psi:
     h_psi:pot    :    459.40s CPU    118.27s WALL (     485 calls)
     h_psi:calbec :     46.40s CPU     11.75s WALL (     485 calls)
     vloc_psi     :    371.25s CPU     96.06s WALL (     485 calls)
     add_vuspsi   :     41.73s CPU     10.46s WALL (     485 calls)

     General routines
     calbec       :     70.58s CPU     19.78s WALL (     609 calls)
     fft          :      4.02s CPU      1.07s WALL (     323 calls)
     ffts         :      0.32s CPU      0.08s WALL (      26 calls)
     fftw         :    421.97s CPU    109.30s WALL (  135622 calls)
 
     Parallel routines
     fft_scatt_xy :     21.89s CPU      5.56s WALL (  135971 calls)
     fft_scatt_yz :    321.79s CPU     84.02s WALL (  135971 calls)
 
     PWSCF        : 16m19.16s CPU     4m24.83s WALL

 
   This run was terminated on:  10:19:24  13Aug2018            

=------------------------------------------------------------------------------=
   JOB DONE.
=------------------------------------------------------------------------------=
